# vtk DataFile Version 3.0
vtk output
ASCII
DATASET RECTILINEAR_GRID
FIELD FieldData 2
base_index 1 3 int
0 0 0 
avtOriginalBounds 1 6 double
-10 10 -10 10 -10 10 
DIMENSIONS 50 50 50
X_COORDINATES 50 float
-10 -9.59184 -9.18367 -8.77551 -8.36735 -7.95918 -7.55102 -7.14286 -6.73469 
-6.32653 -5.91837 -5.5102 -5.10204 -4.69388 -4.28571 -3.87755 -3.46939 -3.06122 
-2.65306 -2.2449 -1.83673 -1.42857 -1.02041 -0.612245 -0.204082 0.204082 0.612245 
1.02041 1.42857 1.83673 2.2449 2.65306 3.06122 3.46939 3.87755 4.28571 
4.69388 5.10204 5.5102 5.91837 6.32653 6.73469 7.14286 7.55102 7.95918 
8.36735 8.77551 9.18367 9.59184 10 
Y_COORDINATES 50 float
-10 -9.59184 -9.18367 -8.77551 -8.36735 -7.95918 -7.55102 -7.14286 -6.73469 
-6.32653 -5.91837 -5.5102 -5.10204 -4.69388 -4.28571 -3.87755 -3.46939 -3.06122 
-2.65306 -2.2449 -1.83673 -1.42857 -1.02041 -0.612245 -0.204082 0.204082 0.612245 
1.02041 1.42857 1.83673 2.2449 2.65306 3.06122 3.46939 3.87755 4.28571 
4.69388 5.10204 5.5102 5.91837 6.32653 6.73469 7.14286 7.55102 7.95918 
8.36735 8.77551 9.18367 9.59184 10 
Z_COORDINATES 50 float
-10 -9.59184 -9.18367 -8.77551 -8.36735 -7.95918 -7.55102 -7.14286 -6.73469 
-6.32653 -5.91837 -5.5102 -5.10204 -4.69388 -4.28571 -3.87755 -3.46939 -3.06122 
-2.65306 -2.2449 -1.83673 -1.42857 -1.02041 -0.612245 -0.204082 0.204082 0.612245 
1.02041 1.42857 1.83673 2.2449 2.65306 3.06122 3.46939 3.87755 4.28571 
4.69388 5.10204 5.5102 5.91837 6.32653 6.73469 7.14286 7.55102 7.95918 
8.36735 8.77551 9.18367 9.59184 10 
POINT_DATA 125000
SCALARS hardyglobal float
LOOKUP_TABLE default
2.08534 2.10176 2.11638 2.12887 2.13885 2.146 2.15039 2.15338 2.15868 
2.17076 2.1897 2.21097 2.23056 2.24683 2.25947 2.2686 2.27442 2.2771 
2.27684 2.27385 2.26842 2.26093 2.25183 2.24164 2.23091 2.22019 2.21002 
2.20083 2.19295 2.1866 2.18187 2.17872 2.17701 2.17651 2.17696 2.17802 
2.17936 2.18063 2.18144 2.18145 2.18026 2.17751 2.17286 2.16599 2.15669 
2.14484 2.13043 2.11357 2.09448 2.07345 2.12172 2.13936 2.15521 2.16894 
2.18022 2.1888 2.19483 2.19966 2.20665 2.21965 2.23869 2.25985 2.2795 
2.29598 2.30887 2.31819 2.32403 2.32651 2.32577 2.322 2.31549 2.30665 
2.29597 2.28405 2.27154 2.25906 2.24724 2.23658 2.22748 2.22021 2.21485 
2.2114 2.20969 2.20948 2.21048 2.21231 2.21461 2.21696 2.21895 2.22014 
2.22008 2.2183 2.21437 2.2079 2.1986 2.18632 2.17108 2.15304 2.13249 
2.10979 2.15935 2.17844 2.1958 2.21118 2.22435 2.23523 2.24414 2.2523 
2.26215 2.27613 2.29422 2.31388 2.33243 2.34835 2.36102 2.37024 2.37593 
2.37811 2.37681 2.37219 2.36452 2.35422 2.34186 2.32809 2.31365 2.29928 
2.28566 2.2734 2.26295 2.25461 2.24852 2.24466 2.24287 2.2429 2.2444 
2.247 2.25027 2.25377 2.25701 2.25949 2.26067 2.25998 2.25687 2.25084 
2.24153 2.22874 2.21253 2.19312 2.1709 2.14636 2.19822 2.21894 2.23803 
2.25532 2.2707 2.28425 2.29635 2.30797 2.32062 2.3356 2.35285 2.37095 
2.38816 2.40324 2.41545 2.4244 2.42985 2.43164 2.42973 2.4242 2.41531 
2.4035 2.38936 2.37366 2.3572 2.34082 2.3253 2.31132 2.2994 2.28988 
2.28292 2.27854 2.27655 2.27671 2.27865 2.28195 2.28616 2.2908 2.29531 
2.29913 2.30161 2.30208 2.29984 2.29428 2.28492 2.27154 2.25422 2.23326 
2.20921 2.18266 2.23827 2.26076 2.28171 2.30103 2.3187 2.33485 2.34985 
2.36439 2.37931 2.39527 2.4122 2.42931 2.44551 2.45984 2.47159 2.48023 
2.48537 2.48673 2.48417 2.4777 2.46756 2.45418 2.43824 2.42056 2.40203 
2.38358 2.3661 2.35031 2.33681 2.326 2.31805 2.313 2.31068 2.31083 
2.31307 2.31696 2.32201 2.32769 2.33342 2.33853 2.3423 2.34391 2.34254 
2.33742 2.32796 2.3139 2.29534 2.27273 2.24672 2.21807 2.27946 2.30381 
2.3267 2.34806 2.36792 2.38643 2.40388 2.42072 2.43743 2.45434 2.47137 
2.48804 2.50366 2.51749 2.52886 2.5372 2.54201 2.54292 2.53967 2.53224 
2.52083 2.5059 2.48816 2.4685 2.44791 2.4274 2.40792 2.39029 2.37515 
2.36294 2.35388 2.34801 2.34519 2.34515 2.3475 2.35179 2.35749 2.36403 
2.37079 2.37703 2.38194 2.38458 2.38397 2.37919 2.36955 2.35473 2.33488 
2.31056 2.28259 2.25187 2.32173 2.34802 2.37287 2.39623 2.41814 2.43873 
2.45822 2.4769 2.49507 2.51286 2.53022 2.54683 2.5622 2.57572 2.58681 
2.59485 2.59929 2.59969 2.59573 2.58731 2.57464 2.55818 2.53869 2.51712 
2.49454 2.47203 2.45061 2.43114 2.41432 2.40063 2.39034 2.3835 2.37999 
2.37954 2.38176 2.38618 2.39225 2.39937 2.40685 2.41391 2.41966 2.42304 
2.42295 2.41834 2.40839 2.39276 2.37164 2.3457 2.3159 2.28329 2.36507 
2.39336 2.42017 2.44547 2.46929 2.49173 2.51295 2.53317 2.55254 2.57115 
2.58895 2.60567 2.62095 2.63428 2.64509 2.65279 2.6568 2.6566 2.65185 
2.64242 2.62849 2.61057 2.58943 2.56608 2.54164 2.51724 2.49396 2.4727 
2.45421 2.439 2.42737 2.4194 2.41499 2.41388 2.41569 2.41991 2.42598 
2.43326 2.44104 2.44847 2.4546 2.45829 2.45835 2.45362 2.4432 2.42674 
2.40446 2.37712 2.34579 2.31161 2.40945 2.4398 2.46859 2.49578 2.52139 
2.5455 2.56825 2.58977 2.61019 2.62956 2.6478 2.6647 2.67995 2.69308 
2.70357 2.71083 2.71425 2.71333 2.70768 2.69718 2.68201 2.66269 2.64002 
2.61505 2.58892 2.56281 2.53781 2.51486 2.49473 2.47797 2.46491 2.45566 
2.45014 2.4481 2.44915 2.4528 2.45844 2.4654 2.47294 2.48017 2.4861 
2.48954 2.48926 2.48404 2.47298 2.4557 2.43246 2.40406 2.37162 2.33632 
2.45486 2.48733 2.51812 2.54717 2.57449 2.60015 2.62427 2.64697 2.66834 
2.6884 2.70707 2.72417 2.73937 2.75226 2.76231 2.76895 2.77161 2.76977 
2.76308 2.75143 2.73501 2.71435 2.69029 2.66387 2.63625 2.60862 2.58206 
2.55754 2.53585 2.51753 2.50297 2.49229 2.48544 2.48218 2.48214 2.48478 
2.48951 2.49562 2.50233 2.50875 2.51383 2.51641 2.51524 2.50915 2.49726 
2.4792 2.45525 2.42618 2.39311 2.3572 2.50124 2.53592 2.56874 2.59963 
2.62861 2.65574 2.68116 2.70496 2.72723 2.74798 2.7671 2.7844 2.79955 
2.81212 2.8216 2.82745 2.82912 2.82615 2.81823 2.80529 2.78757 2.76562 
2.74027 2.71256 2.68364 2.65467 2.62673 2.60078 2.57758 2.55773 2.5416 
2.52936 2.52097 2.51621 2.51471 2.51593 2.51925 2.52397 2.52927 2.53424 
2.53786 2.53899 2.53645 2.52913 2.51624 2.49745 2.47301 2.44365 2.41041 
2.37438 2.54851 2.58547 2.62036 2.6531 2.6837 2.71227 2.73894 2.76385 
2.78706 2.80858 2.82825 2.84585 2.86099 2.87322 2.88203 2.88691 2.88736 
2.883 2.87361 2.85921 2.84009 2.81682 2.79023 2.76135 2.73128 2.70114 
2.67197 2.64469 2.62008 2.59871 2.58096 2.56703 2.5569 2.55036 2.54704 
2.54642 2.54788 2.55069 2.55404 2.55703 2.55867 2.55788 2.55357 2.54475 
2.53073 2.51124 2.48648 2.45712 2.42406 2.38829 2.59647 2.63581 2.67281 
2.70739 2.7396 2.76959 2.79754 2.82363 2.84795 2.87044 2.89091 2.90903 
2.92434 2.93632 2.94445 2.94821 2.94721 2.94119 2.93006 2.91395 2.89324 
2.86855 2.84072 2.8107 2.77956 2.74834 2.71804 2.68952 2.66354 2.64064 
2.62123 2.6055 2.59343 2.58485 2.57939 2.57656 2.57573 2.57619 2.57715 
2.57774 2.577 2.57395 2.56761 2.55712 2.5419 2.5217 2.49672 2.46751 
2.43485 2.39958 2.64478 2.68657 2.7257 2.76211 2.79591 2.82733 2.85665 
2.88413 2.90984 2.93372 2.95546 2.97458 2.99046 3.00245 3.00997 3.01254 
3.00987 3.00187 2.98864 2.97049 2.94793 2.92162 2.89241 2.8612 2.82898 
2.79671 2.7653 2.73558 2.70822 2.68379 2.66265 2.64499 2.63082 2.61996 
2.61209 2.60671 2.60325 2.60101 2.59925 2.59712 2.59375 2.58824 2.57973 
2.56748 2.55099 2.53008 2.50489 2.47587 2.44367 2.409 2.69289 2.73718 
2.77842 2.81661 2.85195 2.88483 2.91568 2.94486 2.97251 2.99848 3.02229 
3.04321 3.06036 3.07287 3.08002 3.08137 3.07677 3.06638 3.0506 3.02996 
3.00515 2.97692 2.9461 2.91355 2.88015 2.84676 2.81419 2.7832 2.75443 
2.72839 2.70542 2.68572 2.6693 2.65598 2.64546 2.63729 2.63093 2.62574 
2.62102 2.61599 2.60985 2.60178 2.59104 2.57699 2.5592 2.53752 2.51207 
2.48319 2.4514 2.41732 2.73995 2.78671 2.82998 2.86982 2.90661 2.94097 
2.97358 3.00498 3.03537 3.06451 3.09168 3.11572 3.1353 3.14915 3.15636 
3.15647 3.14959 3.13626 3.11726 3.09351 3.06592 3.03535 3.00261 2.96848 
2.93371 2.89902 2.86515 2.83276 2.80244 2.77467 2.74976 2.72789 2.70907 
2.69314 2.67982 2.66869 2.65926 2.65096 2.64314 2.63511 2.62613 2.61549 
2.6025 2.58663 2.56751 2.545 2.51917 2.4903 2.45881 2.42519 2.78476 
2.83383 2.8789 2.92015 2.95821 2.99405 3.02872 3.06304 3.09736 3.13132 
3.16378 3.19296 3.21676 3.23325 3.24112 3.23995 3.23022 3.21307 3.18993 
3.16222 3.13116 3.09774 3.0627 3.0267 2.99029 2.95407 2.91864 2.88461 
2.85251 2.82279 2.79578 2.77161 2.75027 2.73163 2.7154 2.70122 2.68865 
2.67716 2.6662 2.65514 2.64333 2.63011 2.61489 2.59719 2.57669 2.55324 
2.52689 2.49787 2.4665 2.43318 2.82564 2.87669 2.92317 2.96542 3.00442 
3.04164 3.07868 3.11684 3.15672 3.19783 3.23847 3.27584 3.30658 3.32761 
3.33696 3.33427 3.3207 3.29838 3.26974 3.23693 3.20157 3.16474 3.12704 
3.08888 3.05056 3.01247 2.97511 2.93904 2.90481 2.87287 2.84351 2.81687 
2.79292 2.77149 2.75233 2.73509 2.71937 2.70472 2.69064 2.67658 2.66195 
2.64618 2.62874 2.60919 2.58723 2.56274 2.53572 2.50636 2.4749 2.44166 
2.86051 2.91295 2.96018 3.00274 3.04211 3.08043 3.12008 3.16313 3.21064 
3.26211 3.31507 3.36513 3.40688 3.43524 3.4471 3.44225 3.4231 3.3935 
3.35742 3.31806 3.2775 3.23678 3.19621 3.15571 3.11521 3.07484 3.03502 
2.99635 2.95946 2.92485 2.89284 2.86354 2.83687 2.81264 2.79057 2.77032 
2.75152 2.73378 2.71665 2.69966 2.68228 2.664 2.64434 2.6229 2.59942 
2.57376 2.54592 2.51602 2.48426 2.4509 2.88696 2.93988 2.98687 3.02874 
3.06753 3.10626 3.14844 3.1973 3.25483 3.32077 3.39174 3.46107 3.51987 
3.5596 3.57516 3.56674 3.53909 3.49902 3.4529 3.40531 3.35875 3.314 
3.27069 3.22798 3.18512 3.14194 3.09887 3.05674 3.01642 2.97856 2.9435 
2.91131 2.88183 2.8548 2.82988 2.80673 2.78498 2.76427 2.74422 2.72439 
2.70433 2.68358 2.66171 2.63836 2.61329 2.58636 2.55754 2.52693 2.49467 
2.46098 2.90258 2.95471 3.00011 3.03982 3.07652 3.11429 3.15813 3.21306 
3.28277 3.36792 3.46434 3.56212 3.6468 3.70375 3.72432 3.70968 3.66897 
3.614 3.55467 3.49721 3.44432 3.39611 3.35097 3.30669 3.26146 3.21471 
3.16718 3.12029 3.07544 3.03353 2.99493 2.9596 2.92724 2.89745 2.8698 
2.84389 2.81935 2.79584 2.773 2.75046 2.72781 2.70466 2.68062 2.65536 
2.62865 2.60036 2.57046 2.53899 2.50607 2.47187 2.90543 2.95519 2.99726 
3.03285 3.06516 3.09943 3.14253 3.20213 3.28489 3.39369 3.52425 3.6625 
3.78534 3.8677 3.89468 3.86958 3.80959 3.73449 3.65886 3.59055 3.53209 
3.48229 3.43756 3.39332 3.34592 3.29438 3.24039 3.18676 3.13585 3.08892 
3.04626 3.00757 2.97231 2.93984 2.90961 2.88113 2.85399 2.82786 2.80241 
2.77731 2.75221 2.72675 2.70059 2.67345 2.64511 2.61543 2.58437 2.55194 
2.51824 2.4834 2.89459 2.94025 2.97701 3.006 3.03069 3.05723 3.09465 
3.15429 3.24773 3.38236 3.55522 3.74747 3.9236 4.04189 4.07706 4.03664 
3.95117 3.85177 3.75837 3.67997 3.6184 3.57082 3.53079 3.48976 3.44067 
3.38215 3.31841 3.25516 3.19628 3.1433 3.09614 3.05402 3.01594 2.98098 
2.94838 2.91754 2.88803 2.85949 2.83162 2.80414 2.77674 2.74912 2.72098 
2.69205 2.66213 2.63109 2.59885 2.56543 2.53087 2.4953 2.87063 2.91056 
2.94006 2.95976 2.97271 2.98533 3.00852 3.05834 3.1541 3.31147 3.53107 
3.78839 4.03166 4.19651 4.24334 4.18641 4.07441 3.95165 3.84294 3.75786 
3.69757 3.65801 3.62955 3.59718 3.54715 3.4778 3.39931 3.32283 3.25415 
3.19446 3.14276 3.09741 3.05681 3.01966 2.98497 2.95204 2.92039 2.88967 
2.85962 2.82998 2.80051 2.77093 2.74098 2.71042 2.67905 2.64674 2.61339 
2.579 2.54359 2.50725 2.83569 2.86875 2.88956 2.89764 2.89461 2.88563 
2.8821 2.90514 2.98593 3.155 3.4196 3.74585 4.06114 4.27786 4.34366 
4.28027 4.15304 4.01715 3.90111 3.81532 3.76148 3.73597 3.72709 3.71079 
3.66074 3.57523 3.47661 3.38431 3.30532 3.23936 3.18382 3.13592 3.09338 
3.05451 3.0181 2.9834 2.9499 2.91728 2.8853 2.85378 2.8225 2.79122 
2.75973 2.72777 2.69517 2.66175 2.62743 2.59216 2.55596 2.51889 2.79319 
2.81916 2.83099 2.82658 2.80485 2.76744 2.72296 2.6957 2.73369 2.89541 
3.20057 3.59482 3.97542 4.23955 4.33414 4.2863 4.16719 4.03615 3.92442 
3.84445 3.80012 3.7902 3.80339 3.80698 3.75794 3.65478 3.53651 3.43088 
3.3444 3.27449 3.21684 3.16763 3.12404 3.08408 3.04645 3.01036 2.97534 
2.94112 2.90754 2.87445 2.84169 2.80906 2.77634 2.74331 2.70975 2.67549 
2.6404 2.60442 2.56755 2.52982 2.74716 2.76697 2.77128 2.7562 2.71727 
2.65042 2.55694 2.45824 2.4215 2.55414 2.90139 3.36665 3.80111 4.09947 
4.22519 4.21004 4.1194 4.00917 3.91154 3.84145 3.80521 3.80369 3.82682 
3.83961 3.79269 3.6848 3.56161 3.4535 3.36639 3.29675 3.2396 3.19078 
3.14725 3.10699 3.0687 3.03166 2.9955 2.96004 2.92521 2.89092 2.85708 
2.82351 2.78999 2.75627 2.72212 2.68734 2.65176 2.61529 2.57792 2.53968 
2.70143 2.71717 2.71729 2.69677 2.64854 2.56325 2.43317 2.27061 2.15467 
2.25145 2.64241 3.16997 3.63372 3.9404 4.08108 4.09388 4.03419 3.94931 
3.86899 3.80884 3.77598 3.77126 3.78497 3.78822 3.74433 3.65214 3.54518 
3.44862 3.36907 3.30445 3.25067 3.20403 3.16177 3.12202 3.08369 3.04618 
3.00929 2.97298 2.93729 2.90224 2.86777 2.83373 2.79989 2.76596 2.73166 
2.69674 2.66101 2.62434 2.5867 2.54812 2.65894 2.67337 2.67389 2.65578 
2.61187 2.53196 2.40582 2.24159 2.11813 2.21598 2.62091 3.14431 3.57471 
3.8431 3.96507 3.98258 3.94019 3.87391 3.80757 3.75453 3.72083 3.70628 
3.70239 3.69022 3.64974 3.57984 3.49808 3.42068 3.35397 3.29778 3.2496 
3.20665 3.1667 3.12827 3.09048 3.05299 3.01579 2.97902 2.9429 2.90755 
2.87296 2.839 2.80539 2.77179 2.73785 2.70325 2.66774 2.63119 2.59354 
2.55482 2.62126 2.63713 2.64259 2.63476 2.60946 2.5614 2.48798 2.40489 
2.38082 2.53949 2.91183 3.3367 3.6553 3.83312 3.90082 3.89734 3.85457 
3.79606 3.73753 3.68814 3.65176 3.62751 3.60926 3.58634 3.54906 3.49653 
3.43654 3.37779 3.32483 3.27831 3.23684 3.19852 3.16168 3.1252 3.08849 
3.05146 3.01433 2.9775 2.94135 2.90617 2.87201 2.83872 2.80597 2.7733 
2.74027 2.70648 2.67163 2.63554 2.59816 2.55953 2.5887 2.60795 2.62136 
2.62881 2.63069 2.62916 2.63225 2.66361 2.77239 3.00843 3.33855 3.63492 
3.81015 3.87483 3.87231 3.83457 3.78038 3.72152 3.66569 3.61739 3.5783 
3.54722 3.52023 3.49171 3.45707 3.41568 3.37078 3.32652 3.28545 3.24803 
3.21337 3.18005 3.1468 3.11275 3.07755 3.04135 3.00461 2.96802 2.93221 
2.89765 2.86448 2.8325 2.80127 2.77019 2.73866 2.7062 2.67243 2.63716 
2.60033 2.56202 2.5607 2.58405 2.60612 2.62945 2.65851 2.70111 2.77131 
2.89248 3.09226 3.37227 3.6646 3.86192 3.92632 3.90327 3.84512 3.77829 
3.71231 3.65069 3.59528 3.54704 3.50591 3.47064 3.43884 3.4076 3.37478 
3.34002 3.30464 3.27043 3.23849 3.20877 3.18036 3.15202 3.12259 3.09131 
3.05797 3.02286 2.98672 2.95057 2.91538 2.88185 2.85022 2.82021 2.79119 
2.76236 2.73294 2.70231 2.67004 2.63592 2.59991 2.56212 2.53645 2.5635 
2.59287 2.62896 2.67858 2.75176 2.86253 3.02758 3.25674 3.52961 3.77611 
3.91438 3.9296 3.87226 3.79267 3.71452 3.64425 3.58221 3.52758 3.47951 
3.43712 3.39929 3.36461 3.3317 3.29966 3.26842 3.23858 3.21084 3.18543 
3.16182 3.13891 3.11535 3.0899 3.0617 3.0305 2.99668 2.96126 2.92563 
2.89122 2.85906 2.82948 2.80207 2.77594 2.75 2.72323 2.69488 2.66447 
2.63177 2.5968 2.55972 2.51552 2.54521 2.57943 2.62343 2.68465 2.77261 
2.8979 3.06892 3.28355 3.51591 3.71207 3.81932 3.83064 3.78172 3.71104 
3.63955 3.57421 3.51584 3.46352 3.41621 3.37304 3.33327 3.29626 3.26154 
3.22901 3.19892 3.17173 3.14774 3.12673 3.10788 3.08982 3.07095 3.04972 
3.02501 2.99633 2.96404 2.9294 2.8943 2.86074 2.83018 2.80308 2.77882 
2.75615 2.7336 2.7099 2.68415 2.65583 2.62476 2.59098 2.55474 2.49809 
2.52936 2.56605 2.61345 2.67854 2.76913 2.89186 3.04872 3.23186 3.41831 
3.57237 3.66342 3.68674 3.66211 3.6142 3.5594 3.50508 3.45345 3.40467 
3.3584 3.31436 3.27239 3.23256 3.1951 3.16053 3.1295 3.10264 3.08025 
3.06202 3.04695 3.03342 3.01944 3.00299 2.98245 2.95692 2.92662 2.89298 
2.85845 2.82576 2.79694 2.77258 2.75183 2.73294 2.71404 2.69359 2.67054 
2.64439 2.61499 2.58247 2.54714 2.48487 2.51722 2.55493 2.60284 2.66701 
2.75344 2.86578 3.00252 3.15445 3.30391 3.42844 3.5104 3.54598 3.54461 
3.52028 3.48414 3.4426 3.39862 3.35342 3.30765 3.26183 3.21656 3.17257 
3.13076 3.0922 3.05806 3.02939 3.00678 2.99009 2.97827 2.96939 2.96096 
2.9503 2.93509 2.91384 2.88641 2.85437 2.82073 2.78904 2.76199 2.7404 
2.72311 2.70792 2.69251 2.67511 2.65459 2.63047 2.60264 2.57133 2.53693 
2.47678 2.51043 2.54892 2.5964 2.65786 2.73778 2.838 2.95569 3.08254 
3.20567 3.31084 3.38733 3.43183 3.44806 3.443 3.42319 3.39314 3.35568 
3.31273 3.26583 3.21643 3.16591 3.11567 3.0672 3.0222 2.98245 2.94969 
2.92512 2.90899 2.90028 2.89671 2.89506 2.89179 2.88364 2.86835 2.84534 
2.81612 2.78418 2.75388 2.72861 2.70944 2.69507 2.68289 2.6703 2.65534 
2.63687 2.6144 2.5879 2.55766 2.52412 2.47445 2.51026 2.55029 2.5979 
2.65697 2.73073 2.82003 2.922 3.02998 3.13486 3.22737 3.30058 3.35147 
3.38061 3.39049 3.38374 3.36263 3.32925 3.28592 3.23515 3.17939 3.12084 
3.06152 3.00346 2.94893 2.90054 2.86098 2.8325 2.81608 2.8108 2.8138 
2.8208 2.82705 2.8282 2.82111 2.80463 2.78011 2.75132 2.72318 2.69971 
2.68233 2.6698 2.65943 2.6485 2.63502 2.61782 2.59646 2.57093 2.54154 
2.50875 2.47803 2.51716 2.56 2.60904 2.66708 2.73627 2.81689 2.90658 
3.00051 3.09253 3.17664 3.24828 3.30473 3.34467 3.36723 3.37142 3.3567 
3.32413 3.27659 3.218 3.15212 3.08202 3.01021 2.93905 2.87132 2.81053 
2.7608 2.72605 2.7085 2.70742 2.71894 2.73711 2.75549 2.76842 2.77192 
2.7643 2.7467 2.72288 2.69803 2.67651 2.6602 2.64822 2.6382 2.62758 
2.61444 2.59767 2.5768 2.55183 2.52304 2.49089 2.48712 2.5308 2.57781 
2.62979 2.68844 2.75496 2.82926 2.90962 2.99295 3.07556 3.15405 3.22575 
3.28857 3.34002 3.37614 3.39149 3.38145 3.34564 3.28854 3.21675 3.13603 
3.05034 2.96233 2.87433 2.7893 2.71169 2.6476 2.60358 2.58401 2.58846 
2.61125 2.6437 2.67696 2.70396 2.72001 2.72318 2.7144 2.69728 2.67687 
2.65768 2.64199 2.6296 2.61871 2.60723 2.59346 2.57634 2.55542 2.53063 
2.50223 2.4706 2.50094 2.55034 2.60288 2.65931 2.72028 2.78602 2.85608 
2.92935 3.0043 3.0795 3.15395 3.22711 3.29821 3.36455 3.41909 3.4496 
3.44389 3.39939 3.32506 3.23308 3.1321 3.0267 2.91907 2.81086 2.70467 
2.60568 2.52243 2.46554 2.44301 2.45489 2.49236 2.54236 2.59288 2.6354 
2.66498 2.67978 2.68079 2.67141 2.65635 2.64 2.62499 2.61181 2.59949 
2.5865 2.57148 2.55353 2.53218 2.50733 2.47916 2.44799 2.51851 2.57483 
2.63434 2.6969 2.76202 2.82884 2.89639 2.96396 3.03147 3.09968 3.17021 
3.24519 3.32632 3.41248 3.49443 3.54948 3.54973 3.48868 3.38669 3.26652 
3.14012 3.01167 2.88213 2.75176 2.6221 2.49843 2.39192 2.31869 2.29234 
2.31364 2.36883 2.43862 2.50726 2.56513 2.60761 2.63346 2.64398 2.64241 
2.63304 2.62001 2.6061 2.59242 2.57874 2.56418 2.54779 2.52884 2.50692 
2.4819 2.4539 2.42319 2.53873 2.60323 2.67143 2.74223 2.81379 2.88379 
2.95026 3.01256 3.07201 3.13179 3.19643 3.27118 3.36134 3.46965 3.58791 
3.6806 3.69083 3.60462 3.46591 3.3125 3.1579 3.00496 2.85324 2.70139 
2.5493 2.40156 2.27136 2.18075 2.15014 2.18127 2.25413 2.3424 2.42683 
2.4974 2.55029 2.58513 2.60365 2.60898 2.60501 2.59548 2.58317 2.56958 
2.55507 2.53932 2.52178 2.50195 2.47952 2.45437 2.42658 2.39635 2.56022 
2.6343 2.71326 2.79511 2.87627 2.95217 3.01888 3.07528 3.12425 3.17197 
3.22622 3.29533 3.38781 3.51063 3.65931 3.79014 3.8149 3.7097 3.54287 
3.3621 3.18129 3.00487 2.83318 2.66389 2.49518 2.33038 2.18337 2.07999 
2.04568 2.08282 2.16669 2.266 2.3595 2.43728 2.4963 2.53687 2.56098 
2.57159 2.57212 2.56587 2.55545 2.5425 2.52778 2.51138 2.49312 2.47272 
2.44999 2.42485 2.39736 2.36771 2.58116 2.66609 2.75817 2.85459 2.9497 
3.03533 3.10379 3.15254 3.18663 3.21649 3.25377 3.3091 3.39198 3.50974 
3.65832 3.79562 3.83618 3.7519 3.596 3.40631 3.20445 3.00729 2.82022 
2.64064 2.46523 2.29605 2.14607 2.04042 2.00399 2.03898 2.12083 2.21855 
2.3111 2.38874 2.4486 2.49103 2.51788 2.53173 2.53548 2.53191 2.52333 
2.51136 2.49692 2.4804 2.46186 2.44125 2.41847 2.39353 2.36649 2.33751 
2.599 2.69549 2.80261 2.91731 3.03164 3.13213 3.20432 3.24261 3.25564 
3.26058 3.27388 3.30741 3.36911 3.46276 3.58173 3.69497 3.75097 3.72457 
3.61752 3.43494 3.21661 3.00395 2.80901 2.62836 2.45737 2.29706 2.15814 
2.06078 2.02405 2.04919 2.11658 2.20056 2.28253 2.35301 2.40865 2.44925 
2.47608 2.49112 2.49666 2.49493 2.48786 2.47691 2.46303 2.44675 2.42831 
2.4078 2.38525 2.36069 2.33424 2.30604 2.61047 2.71782 2.84017 2.97509 
3.11289 3.23334 3.31144 3.33609 3.3219 3.29618 3.28097 3.28832 3.32321 
3.38554 3.46811 3.55328 3.61788 3.64108 3.58413 3.41749 3.19632 2.98243 
2.79163 2.62 2.46264 2.31995 2.19975 2.11575 2.07995 2.0925 2.13999 
2.20399 2.26967 2.32834 2.37614 2.41207 2.43662 2.45108 2.45707 2.45628 
2.45022 2.44013 2.42689 2.41105 2.39297 2.3728 2.35067 2.32667 2.30093 
2.27359 2.61196 2.72729 2.8616 3.01371 3.17331 3.31395 3.39833 3.40832 
3.36602 3.31034 3.26821 3.25083 3.2602 3.29363 3.3447 3.40357 3.4585 
3.49021 3.45405 3.31717 3.12492 2.93378 2.76182 2.60828 2.47031 2.34851 
2.24815 2.17755 2.14327 2.14482 2.17368 2.21768 2.26595 2.31118 2.34941 
2.37901 2.39979 2.41235 2.41771 2.41704 2.41147 2.40197 2.38929 2.37397 
2.35636 2.33669 2.31513 2.29181 2.26687 2.24046 2.60049 2.71867 2.85752 
3.01662 3.18565 3.33525 3.42131 3.4215 3.3622 3.28839 3.22896 3.19406 
3.18395 3.1948 3.22074 3.25441 3.28619 3.29875 3.2625 3.15998 3.0149 
2.86223 2.719 2.58904 2.47268 2.37135 2.28869 2.2295 2.19709 2.19073 
2.20511 2.23247 2.26525 2.29773 2.32628 2.34904 2.36531 2.37517 2.37914 
2.37796 2.37241 2.3632 2.35095 2.33611 2.31902 2.29992 2.27902 2.25644 
2.23236 2.20692 2.57481 2.68963 2.82344 2.97518 3.1343 3.27328 3.35258 
3.35251 3.29604 3.22325 3.16087 3.11869 3.09711 3.0926 3.09993 3.11263 
3.12213 3.11573 3.07781 3.00118 2.89623 2.78085 2.6675 2.56183 2.46639 
2.38336 2.31546 2.26555 2.23527 2.2239 2.22811 2.24296 2.26332 2.28493 
2.30475 2.32095 2.3326 2.33942 2.34158 2.33947 2.33357 2.32441 2.31241 
2.29798 2.28139 2.2629 2.24267 2.22089 2.19769 2.17323 2.11333 2.13009 
2.14485 2.15715 2.1664 2.17187 2.17305 2.17101 2.17151 2.18389 2.20843 
2.23572 2.25951 2.27836 2.29254 2.30251 2.30864 2.31117 2.31031 2.3063 
2.29947 2.29025 2.27919 2.26693 2.25416 2.24159 2.22988 2.21956 2.21104 
2.20458 2.20023 2.19792 2.19744 2.19847 2.20064 2.20357 2.20683 2.21002 
2.21273 2.21454 2.21503 2.21377 2.21035 2.20442 2.19567 2.18397 2.16931 
2.15182 2.13177 2.10952 2.15119 2.16926 2.18532 2.19896 2.20965 2.21679 
2.22008 2.22075 2.22398 2.23741 2.26125 2.28778 2.31139 2.33046 2.34499 
2.35527 2.36153 2.36391 2.36254 2.35764 2.34951 2.33862 2.32559 2.31117 
2.29616 2.28139 2.26764 2.25554 2.24558 2.23806 2.23307 2.23053 2.2302 
2.23175 2.23476 2.23881 2.24341 2.24812 2.25246 2.25593 2.25801 2.25816 
2.25585 2.25058 2.24198 2.22985 2.21421 2.19528 2.17343 2.14915 2.19044 
2.21006 2.22775 2.2432 2.25606 2.26603 2.27324 2.27908 2.28717 2.30177 
2.32295 2.34636 2.36805 2.3863 2.40061 2.4109 2.41713 2.41927 2.41735 
2.41148 2.40196 2.38928 2.37414 2.35739 2.33996 2.32281 2.30683 2.29277 
2.2812 2.27247 2.26669 2.26379 2.26354 2.26555 2.26938 2.27456 2.28058 
2.28692 2.29304 2.29836 2.30226 2.30405 2.30302 2.29853 2.29008 2.27741 
2.26057 2.2399 2.21594 2.18932 2.23106 2.25242 2.27199 2.28955 2.30494 
2.31815 2.32954 2.34031 2.35258 2.36834 2.38759 2.40822 2.42785 2.44498 
2.45883 2.46897 2.47509 2.47696 2.47444 2.46757 2.4566 2.44206 2.42471 
2.40551 2.38553 2.36586 2.34751 2.33134 2.318 2.30789 2.30118 2.29779 
2.29747 2.29983 2.30441 2.31069 2.31811 2.32612 2.33411 2.34142 2.3473 
2.3509 2.35132 2.3477 2.33938 2.32603 2.30777 2.28507 2.25869 2.22946 
2.27302 2.29627 2.31786 2.33765 2.35561 2.37187 2.38685 2.40138 2.41663 
2.43351 2.45199 2.47102 2.48924 2.50549 2.51892 2.5289 2.53489 2.53647 
2.53335 2.52546 2.51302 2.49658 2.47697 2.45527 2.43268 2.41042 2.38962 
2.37124 2.35601 2.34439 2.33657 2.33251 2.33196 2.33452 2.3397 2.34695 
2.35568 2.3653 2.37514 2.38445 2.39237 2.39786 2.3998 2.39709 2.38886 
2.3747 2.3548 2.32984 2.30081 2.26879 2.31628 2.34154 2.3652 2.38722 
2.4076 2.42653 2.44436 2.46164 2.47903 2.49696 2.51539 2.53378 2.55127 
2.56701 2.58017 2.59002 2.59589 2.59717 2.59343 2.58452 2.57062 2.55228 
2.53044 2.50627 2.48109 2.45626 2.433 2.41238 2.39518 2.38192 2.37285 
2.36794 2.36695 2.36948 2.37504 2.38304 2.39288 2.40391 2.41541 2.42657 
2.4364 2.4437 2.44709 2.44522 2.43699 2.42191 2.40025 2.3729 2.34115 
2.30633 2.36084 2.38818 2.41395 2.43811 2.46071 2.48192 2.50202 2.52138 
2.54038 2.55926 2.578 2.59625 2.61347 2.62895 2.64195 2.65169 2.65738 
2.6583 2.65392 2.64398 2.62864 2.60849 2.58451 2.55798 2.53035 2.50305 
2.47742 2.45457 2.43538 2.4204 2.40993 2.40397 2.40231 2.40456 2.4102 
2.41865 2.42926 2.44134 2.45414 2.46677 2.47814 2.4869 2.49147 2.49021 
2.48184 2.46576 2.44234 2.41271 2.37841 2.34101 2.40672 2.43621 2.46408 
2.49031 2.51495 2.53812 2.56007 2.58105 2.60132 2.62104 2.64018 2.65852 
2.67565 2.69097 2.7038 2.71333 2.71871 2.71915 2.71403 2.70304 2.68631 
2.66445 2.63851 2.60984 2.57997 2.55041 2.52257 2.49761 2.47645 2.45971 
2.44771 2.44051 2.43793 2.43959 2.44496 2.45345 2.46438 2.47701 2.49054 
2.50403 2.51631 2.52592 2.5311 2.53005 2.52131 2.50423 2.47925 2.44769 
2.4113 2.37181 2.45396 2.48567 2.51566 2.54389 2.5704 2.59531 2.61881 
2.64111 2.66241 2.68283 2.70235 2.7208 2.73784 2.75294 2.76545 2.77456 
2.77941 2.77916 2.77315 2.76104 2.74296 2.71954 2.69186 2.66133 2.62952 
2.59799 2.56817 2.54127 2.51823 2.49972 2.48611 2.4775 2.47373 2.47446 
2.47917 2.48721 2.49789 2.51044 2.52399 2.53755 2.54989 2.55948 2.56451 
2.56308 2.55369 2.53567 2.50952 2.47662 2.43883 2.39797 2.50262 2.53664 
2.56877 2.59896 2.62723 2.6537 2.67854 2.70195 2.7241 2.74508 2.7649 
2.78339 2.80024 2.81496 2.82691 2.83531 2.83931 2.83807 2.83095 2.81761 
2.79821 2.77337 2.7442 2.71213 2.67873 2.64555 2.61404 2.58541 2.56064 
2.5404 2.52511 2.51492 2.50972 2.50917 2.51276 2.51983 2.52965 2.54139 
2.55415 2.56689 2.57834 2.58696 2.59097 2.58853 2.57819 2.55935 2.53247 
2.49895 2.46059 2.41916 2.55275 2.58919 2.6235 2.65562 2.68557 2.71348 
2.73951 2.76389 2.78676 2.80823 2.82827 2.84672 2.86326 2.8774 2.88853 
2.89588 2.89865 2.89608 2.88756 2.87283 2.85207 2.82593 2.79551 2.7622 
2.72754 2.69306 2.66016 2.63005 2.60369 2.58178 2.56479 2.55288 2.54599 
2.54381 2.54583 2.55139 2.5597 2.56991 2.58108 2.59212 2.60178 2.60855 
2.61077 2.60676 2.59522 2.57565 2.5485 2.515 2.47681 2.43559 2.60437 
2.64335 2.6799 2.71394 2.74551 2.77475 2.80189 2.82716 2.85072 2.87267 
2.89295 2.91136 2.92752 2.94094 2.95099 2.95697 2.95814 2.95384 2.94361 
2.92726 2.90505 2.87765 2.84612 2.81182 2.77619 2.74071 2.70669 2.67532 
2.64753 2.62405 2.60533 2.59158 2.58278 2.57862 2.57862 2.58212 2.58831 
2.59632 2.60517 2.61378 2.62092 2.62517 2.62503 2.61906 2.60617 2.58596 
2.55882 2.5258 2.48834 2.44789 2.65741 2.69907 2.73793 2.77388 2.80701 
2.83752 2.86571 2.89188 2.91621 2.93878 2.95947 2.97798 2.99387 3.00655 
3.01538 3.01971 3.01893 3.01252 3.00019 2.98193 2.95808 2.92934 2.89676 
2.86159 2.82518 2.78889 2.75398 2.72153 2.69245 2.66745 2.64699 2.6313 
2.62036 2.61392 2.61149 2.61243 2.61595 2.62117 2.62713 2.63275 2.63686 
2.63818 2.63537 2.62725 2.61293 2.59212 2.56512 2.53282 2.49638 2.45704 
2.71167 2.75617 2.79738 2.83521 2.86982 2.90155 2.9308 2.95798 2.98333 
3.00687 3.0284 3.04745 3.0634 3.07553 3.08315 3.08565 3.08257 3.07362 
3.05876 3.03818 3.01238 2.98211 2.94837 2.91232 2.87519 2.8382 2.80249 
2.76907 2.73879 2.71231 2.69009 2.67236 2.6591 2.65009 2.64487 2.64283 
2.64322 2.6452 2.64783 2.65009 2.6509 2.64909 2.64352 2.63319 2.61744 
2.596 2.56916 2.53759 2.50223 2.4641 2.76672 2.81417 2.85774 2.89739 
2.93338 2.96626 2.99664 3.02509 3.05193 3.07714 3.10031 3.12073 3.13745 
3.14953 3.15613 3.15669 3.15095 3.13895 3.12098 3.09755 3.06934 3.03718 
3.00204 2.96496 2.92702 2.88929 2.85279 2.81841 2.78693 2.75896 2.73493 
2.71505 2.69932 2.68751 2.67922 2.67388 2.6708 2.6692 2.66823 2.66694 
2.66432 2.65934 2.65103 2.63855 2.62135 2.59925 2.57244 2.54147 2.50708 
2.47009 2.82176 2.87224 2.91812 2.95942 2.99662 3.03057 3.06222 3.0924 
3.12154 3.14956 3.17576 3.19896 3.21771 3.23061 3.23659 3.23512 3.22625 
3.21049 3.18862 3.16158 3.13031 3.09575 3.05883 3.02044 2.9815 2.94288 
2.90545 2.87 2.83723 2.80769 2.78177 2.75964 2.7413 2.72654 2.71498 
2.70613 2.69937 2.69401 2.68929 2.68436 2.6783 2.67021 2.65922 2.64463 
2.62598 2.60311 2.57618 2.5456 2.51195 2.47589 2.87552 2.92898 2.97698 
3.01964 3.05777 3.09267 3.12581 3.15841 3.19113 3.22377 3.2552 3.28349 
3.3063 3.32145 3.32743 3.32376 3.31098 3.29033 3.26339 3.23168 3.19651 
3.15892 3.11975 3.0797 3.03944 2.99965 2.96104 2.92429 2.89002 2.85873 
2.83077 2.80628 2.78524 2.76742 2.75251 2.74005 2.72953 2.72036 2.71186 
2.70329 2.69385 2.68271 2.66911 2.65243 2.63229 2.60853 2.58126 2.55081 
2.51761 2.48221 2.92607 2.98226 3.03199 3.07553 3.11415 3.1498 3.1847 
3.22073 3.25888 3.29888 3.33894 3.37594 3.40603 3.42562 3.43243 3.42608 
3.40798 3.38065 3.34687 3.30903 3.26888 3.22754 3.18564 3.14356 3.10165 
3.06032 3.02012 2.98166 2.94553 2.91222 2.88201 2.85503 2.8312 2.81031 
2.79205 2.77601 2.76177 2.74881 2.73659 2.72446 2.7117 2.69757 2.6814 
2.66263 2.64091 2.6161 2.58826 2.55764 2.52459 2.48953 2.97072 3.02911 
3.07989 3.12355 3.16197 3.19803 3.23497 3.27567 3.32179 3.37309 3.4269 
3.47824 3.52064 3.548 3.55663 3.5464 3.52044 3.48349 3.44024 3.39432 
3.34797 3.3022 3.25723 3.21287 3.16897 3.12563 3.08326 3.04248 3.00394 
2.96816 2.93541 2.90577 2.87911 2.85518 2.83364 2.81414 2.7963 2.77971 
2.76389 2.74829 2.73228 2.71522 2.69648 2.67558 2.65217 2.62613 2.59748 
2.5664 2.53318 2.49815 3.00611 3.06575 3.11652 3.15921 3.19642 3.23219 
3.27124 3.31792 3.37514 3.44309 3.51812 3.5924 3.65503 3.69524 3.70669 
3.69 3.65162 3.60033 3.54388 3.48746 3.43369 3.38314 3.33516 3.28859 
3.24248 3.1965 3.15108 3.10705 3.06528 3.0264 2.99072 2.95822 2.92868 
2.90176 2.8771 2.85432 2.83308 2.81303 2.79377 2.77483 2.75567 2.73571 
2.71441 2.6913 2.6661 2.63864 2.60895 2.57715 2.54348 2.50818 3.02858 
3.08801 3.13728 3.17745 3.21192 3.2461 3.28661 3.34008 3.41164 3.50285 
3.60943 3.71958 3.81487 3.87578 3.89081 3.86238 3.80385 3.73115 3.65656 
3.58703 3.52507 3.4702 3.42014 3.37205 3.32366 3.27418 3.22432 3.17557 
3.12935 3.08653 3.04741 3.01182 2.97936 2.94956 2.92194 2.8961 2.8717 
2.8484 2.82589 2.80375 2.78154 2.75873 2.73486 2.70951 2.68241 2.6534 
2.62249 2.58975 2.55536 2.51954 3.0349 3.09218 3.13801 3.17359 3.20303 